%YAML 1.1
---
groupId: no.nordicsemi.android
artifactId: mesh
versioning:
  latest: 3.1.3
  release: 3.1.3
  versions:
  - 2.3.0
  - 2.3.1
  - 2.4.0
  - 2.4.1
  - 2.4.2
  - 2.4.3
  - 2.4.4
  - 3.0.0
  - 3.0.1
  - 3.0.2
  - 3.0.3
  - 3.1.0
  - 3.1.1
  - 3.1.2
  - 3.1.3
  lastUpdated: 20210324115147
