%YAML 1.1
---
groupId: no.nordicsemi.android
artifactId: mesh
versioning:
  latest: 3.0.0
  release: 3.0.0
  versions:
  - 2.3.0
  - 2.3.1
  - 2.4.0
  - 2.4.1
  - 2.4.2
  - 2.4.3
  - 2.4.4
  - 3.0.0
  lastUpdated: 20210208085144
